
LAMMPS data file: Linear chain (atom_style bond)

187 atoms
186 bonds

1 atom types
1 bond types

-136.0425 136.0425 xlo xhi
-136.0425 136.0425 ylo yhi
-136.0425 136.0425 zlo zhi

Masses

1 1.0

Atoms # bond

1 1 1 0.000000 -0.015803 -0.040693
2 1 1 0.970000 0.012066 0.014886
3 1 1 1.940000 -0.006194 0.007346
4 1 1 2.910000 0.034208 0.021216
5 1 1 3.880000 0.014153 0.013755
6 1 1 4.850000 -0.017271 0.019280
7 1 1 5.820000 -0.032969 -0.006642
8 1 1 6.790000 -0.008746 -0.034570
9 1 1 7.760000 -0.002207 0.032869
10 1 1 8.730000 -0.006803 -0.024152
11 1 1 9.700000 -0.001821 0.017078
12 1 1 10.670000 0.003864 -0.000053
13 1 1 11.640000 -0.028184 0.010020
14 1 1 12.610000 0.009715 0.026825
15 1 1 13.580000 0.029781 0.013772
16 1 1 14.550000 -0.032848 -0.028708
17 1 1 15.520000 -0.021960 0.005898
18 1 1 16.490000 -0.015745 0.026191
19 1 1 17.460000 0.004877 0.007295
20 1 1 18.430000 0.015010 0.006805
21 1 1 19.400000 -0.028211 0.049039
22 1 1 20.370000 0.029260 0.030463
23 1 1 21.340000 -0.014950 -0.036950
24 1 1 22.310000 -0.030133 -0.021069
25 1 1 23.280000 0.017643 0.018006
26 1 1 24.250000 0.029168 0.042849
27 1 1 25.220000 0.010418 0.007091
28 1 1 26.190000 -0.007260 -0.006729
29 1 1 27.160000 -0.023156 0.010216
30 1 1 28.130000 0.006363 -0.008104
31 1 1 29.100000 -0.016212 0.009139
32 1 1 30.070000 0.026123 0.001630
33 1 1 31.040000 0.005675 -0.010963
34 1 1 32.010000 -0.004971 -0.006330
35 1 1 32.980000 -0.005702 -0.011945
36 1 1 33.950000 0.007928 0.025995
37 1 1 34.920000 -0.018944 0.027984
38 1 1 35.890000 -0.008060 -0.007342
39 1 1 36.860000 -0.043129 -0.048430
40 1 1 37.830000 0.014710 -0.021822
41 1 1 38.800000 0.016106 0.001013
42 1 1 39.770000 0.005009 0.026666
43 1 1 40.740000 -0.001447 -0.065322
44 1 1 41.710000 -0.034773 0.019453
45 1 1 42.680000 0.039934 -0.001919
46 1 1 43.650000 -0.014044 -0.027844
47 1 1 44.620000 0.010921 -0.035958
48 1 1 45.590000 -0.024916 0.002719
49 1 1 46.560000 0.002039 -0.005176
50 1 1 47.530000 0.021268 -0.024868
51 1 1 48.500000 -0.023817 -0.008367
52 1 1 49.470000 0.001303 -0.006755
53 1 1 50.440000 0.039854 -0.012077
54 1 1 51.410000 0.012707 -0.011728
55 1 1 52.380000 0.006414 -0.008858
56 1 1 53.350000 -0.007861 0.032473
57 1 1 54.320000 -0.006741 0.034343
58 1 1 55.290000 -0.014791 -0.009376
59 1 1 56.260000 0.022189 -0.049593
60 1 1 57.230000 -0.033477 0.000359
61 1 1 58.200000 0.009538 0.011457
62 1 1 59.170000 -0.006521 -0.028906
63 1 1 60.140000 0.016689 0.008927
64 1 1 61.110000 -0.022827 0.001723
65 1 1 62.080000 0.036425 0.002477
66 1 1 63.050000 -0.024061 -0.008661
67 1 1 64.020000 -0.007488 0.006875
68 1 1 64.990000 0.018274 -0.019004
69 1 1 65.960000 -0.013262 0.020614
70 1 1 66.930000 0.014948 0.027457
71 1 1 67.900000 -0.029721 -0.019497
72 1 1 68.870000 0.020351 -0.019379
73 1 1 69.840000 0.006521 -0.001175
74 1 1 70.810000 -0.015251 0.029739
75 1 1 71.780000 -0.000369 -0.010388
76 1 1 72.750000 -0.003321 0.004974
77 1 1 73.720000 -0.032120 -0.017649
78 1 1 74.690000 -0.026128 -0.042888
79 1 1 75.660000 0.019813 0.029111
80 1 1 76.630000 0.024126 -0.036109
81 1 1 77.600000 0.008041 0.013749
82 1 1 78.570000 -0.011681 0.016544
83 1 1 79.540000 -0.022790 -0.021942
84 1 1 80.510000 -0.017037 -0.014760
85 1 1 81.480000 -0.020596 0.019446
86 1 1 82.450000 -0.021854 -0.009544
87 1 1 83.420000 -0.013046 0.044591
88 1 1 84.390000 -0.018341 0.009481
89 1 1 85.360000 0.036803 -0.024119
90 1 1 86.330000 -0.016963 -0.006793
91 1 1 87.300000 -0.026943 0.024731
92 1 1 88.270000 -0.009711 0.021207
93 1 1 89.240000 0.010688 0.000352
94 1 1 90.210000 0.019291 -0.006198
95 1 1 91.180000 0.021221 -0.026560
96 1 1 92.150000 -0.015090 0.024279
97 1 1 93.120000 -0.042313 0.009526
98 1 1 94.090000 -0.008334 -0.011048
99 1 1 95.060000 -0.014100 0.025815
100 1 1 96.030000 -0.030758 0.016704
101 1 1 97.000000 0.009543 -0.008595
102 1 1 97.970000 -0.001775 0.014140
103 1 1 98.940000 -0.011957 -0.030433
104 1 1 99.910000 0.005640 -0.016933
105 1 1 100.880000 -0.008262 0.001050
106 1 1 101.850000 0.014745 0.036333
107 1 1 102.820000 0.006851 0.002302
108 1 1 103.790000 0.016390 0.005715
109 1 1 104.760000 -0.033824 -0.012057
110 1 1 105.730000 -0.024794 0.013932
111 1 1 106.700000 0.025468 0.007124
112 1 1 107.670000 -0.020631 0.016023
113 1 1 108.640000 -0.019271 0.005067
114 1 1 109.610000 -0.023997 -0.027742
115 1 1 110.580000 -0.028089 0.000346
116 1 1 111.550000 -0.013237 0.008729
117 1 1 112.520000 -0.025987 0.009805
118 1 1 113.490000 -0.012385 0.025052
119 1 1 114.460000 0.020395 -0.004325
120 1 1 115.430000 0.002166 0.004872
121 1 1 116.400000 0.009275 -0.005485
122 1 1 117.370000 0.021913 -0.010169
123 1 1 118.340000 -0.038503 0.004927
124 1 1 119.310000 -0.002168 0.016648
125 1 1 120.280000 0.011920 0.002590
126 1 1 121.250000 0.002146 0.002534
127 1 1 122.220000 -0.013185 -0.024349
128 1 1 123.190000 -0.016418 -0.001826
129 1 1 124.160000 -0.045307 -0.008714
130 1 1 125.130000 -0.019639 -0.001763
131 1 1 126.100000 -0.016269 0.001246
132 1 1 127.070000 -0.004563 0.025922
133 1 1 128.040000 -0.006865 -0.004871
134 1 1 129.010000 0.000515 -0.036358
135 1 1 129.980000 -0.021444 0.028725
136 1 1 130.950000 0.010330 0.001686
137 1 1 131.920000 0.021631 -0.003605
138 1 1 132.890000 -0.004983 -0.006053
139 1 1 133.860000 -0.035519 0.018782
140 1 1 134.830000 -0.003784 -0.001882
141 1 1 135.800000 -0.006685 -0.012699
142 1 1 136.770000 -0.045182 0.003023
143 1 1 137.740000 0.043620 0.019763
144 1 1 138.710000 -0.005763 -0.018494
145 1 1 139.680000 0.000514 0.007418
146 1 1 140.650000 -0.002406 0.016681
147 1 1 141.620000 -0.019063 0.021354
148 1 1 142.590000 0.003103 -0.010984
149 1 1 143.560000 -0.005673 0.006947
150 1 1 144.530000 0.015246 0.001449
151 1 1 145.500000 0.011638 0.048071
152 1 1 146.470000 -0.032778 -0.040107
153 1 1 147.440000 0.001775 -0.019355
154 1 1 148.410000 0.002261 -0.032208
155 1 1 149.380000 0.002658 0.026217
156 1 1 150.350000 0.022170 -0.021960
157 1 1 151.320000 -0.006191 0.017703
158 1 1 152.290000 0.036491 -0.019062
159 1 1 153.260000 -0.017081 0.022353
160 1 1 154.230000 -0.007185 -0.020535
161 1 1 155.200000 0.021023 -0.033601
162 1 1 156.170000 -0.013679 0.019327
163 1 1 157.140000 -0.012567 0.015275
164 1 1 158.110000 -0.024533 0.015507
165 1 1 159.080000 0.009442 0.032413
166 1 1 160.050000 -0.004918 -0.007053
167 1 1 161.020000 -0.001917 0.020951
168 1 1 161.990000 -0.014854 -0.002843
169 1 1 162.960000 0.038993 0.015605
170 1 1 163.930000 0.014486 -0.010422
171 1 1 164.900000 0.017221 -0.023293
172 1 1 165.870000 -0.029839 -0.018848
173 1 1 166.840000 0.028355 0.003346
174 1 1 167.810000 -0.018681 -0.007164
175 1 1 168.780000 0.009016 0.023631
176 1 1 169.750000 -0.032669 0.026740
177 1 1 170.720000 0.018627 -0.013952
178 1 1 171.690000 -0.007987 0.009811
179 1 1 172.660000 -0.005731 0.002749
180 1 1 173.630000 -0.021202 -0.036456
181 1 1 174.600000 0.048575 0.003412
182 1 1 175.570000 0.004489 0.010176
183 1 1 176.540000 0.026710 0.018579
184 1 1 177.510000 -0.020568 -0.002260
185 1 1 178.480000 0.001384 0.015236
186 1 1 179.450000 -0.012008 0.007627
187 1 1 180.420000 0.004503 0.027589

Bonds

1 1 1 2
2 1 2 3
3 1 3 4
4 1 4 5
5 1 5 6
6 1 6 7
7 1 7 8
8 1 8 9
9 1 9 10
10 1 10 11
11 1 11 12
12 1 12 13
13 1 13 14
14 1 14 15
15 1 15 16
16 1 16 17
17 1 17 18
18 1 18 19
19 1 19 20
20 1 20 21
21 1 21 22
22 1 22 23
23 1 23 24
24 1 24 25
25 1 25 26
26 1 26 27
27 1 27 28
28 1 28 29
29 1 29 30
30 1 30 31
31 1 31 32
32 1 32 33
33 1 33 34
34 1 34 35
35 1 35 36
36 1 36 37
37 1 37 38
38 1 38 39
39 1 39 40
40 1 40 41
41 1 41 42
42 1 42 43
43 1 43 44
44 1 44 45
45 1 45 46
46 1 46 47
47 1 47 48
48 1 48 49
49 1 49 50
50 1 50 51
51 1 51 52
52 1 52 53
53 1 53 54
54 1 54 55
55 1 55 56
56 1 56 57
57 1 57 58
58 1 58 59
59 1 59 60
60 1 60 61
61 1 61 62
62 1 62 63
63 1 63 64
64 1 64 65
65 1 65 66
66 1 66 67
67 1 67 68
68 1 68 69
69 1 69 70
70 1 70 71
71 1 71 72
72 1 72 73
73 1 73 74
74 1 74 75
75 1 75 76
76 1 76 77
77 1 77 78
78 1 78 79
79 1 79 80
80 1 80 81
81 1 81 82
82 1 82 83
83 1 83 84
84 1 84 85
85 1 85 86
86 1 86 87
87 1 87 88
88 1 88 89
89 1 89 90
90 1 90 91
91 1 91 92
92 1 92 93
93 1 93 94
94 1 94 95
95 1 95 96
96 1 96 97
97 1 97 98
98 1 98 99
99 1 99 100
100 1 100 101
101 1 101 102
102 1 102 103
103 1 103 104
104 1 104 105
105 1 105 106
106 1 106 107
107 1 107 108
108 1 108 109
109 1 109 110
110 1 110 111
111 1 111 112
112 1 112 113
113 1 113 114
114 1 114 115
115 1 115 116
116 1 116 117
117 1 117 118
118 1 118 119
119 1 119 120
120 1 120 121
121 1 121 122
122 1 122 123
123 1 123 124
124 1 124 125
125 1 125 126
126 1 126 127
127 1 127 128
128 1 128 129
129 1 129 130
130 1 130 131
131 1 131 132
132 1 132 133
133 1 133 134
134 1 134 135
135 1 135 136
136 1 136 137
137 1 137 138
138 1 138 139
139 1 139 140
140 1 140 141
141 1 141 142
142 1 142 143
143 1 143 144
144 1 144 145
145 1 145 146
146 1 146 147
147 1 147 148
148 1 148 149
149 1 149 150
150 1 150 151
151 1 151 152
152 1 152 153
153 1 153 154
154 1 154 155
155 1 155 156
156 1 156 157
157 1 157 158
158 1 158 159
159 1 159 160
160 1 160 161
161 1 161 162
162 1 162 163
163 1 163 164
164 1 164 165
165 1 165 166
166 1 166 167
167 1 167 168
168 1 168 169
169 1 169 170
170 1 170 171
171 1 171 172
172 1 172 173
173 1 173 174
174 1 174 175
175 1 175 176
176 1 176 177
177 1 177 178
178 1 178 179
179 1 179 180
180 1 180 181
181 1 181 182
182 1 182 183
183 1 183 184
184 1 184 185
185 1 185 186
186 1 186 187
